# Wall shear stress     
# Time                  	patch                   	min                     	max                     
